 Gaussian 16, Revision C.01,
 Gaussian 16:  ES64L-G16RevC.01  3-Jul-2019

 ------------------
 # CCSD/aug-cc-pVDZ
 ------------------

 -------
 TitleMe
 -------
 Symbolic Z-matrix:
 Charge =  1 Multiplicity = 2

                         Standard orientation:
 ---------------------------------------------------------------------
 Center     Atomic      Atomic             Coordinates (Angstroms)
 Number     Number       Type             X           Y           Z
 ---------------------------------------------------------------------
      1          2           0        0.000000    0.000000    0.000000
 ---------------------------------------------------------------------

 SCF Done:  E(UHF) =  -1.99436423289     A.U. after    6 cycles
 E2 =     0.0000000000D+00 EUMP2 =    -0.19943642328900D+01

 The electronic state is 2-A1G.
 Alpha  occ. eigenvalues --   -1.99436
 Alpha virt. eigenvalues --   -0.15582   0.04298   0.04298   0.04298   0.93348
 Alpha virt. eigenvalues --    2.16627   2.16627   2.16627
  Beta virt. eigenvalues --   -0.81986  -0.11894   0.07863   0.07863   0.07863

 Mulliken charges and spin densities:
               1          2
     1  He   1.000000   1.000000
 Sum of Mulliken charges =   1.00000   1.00000

 Dipole moment (field-independent basis, Debye):
    X=              0.0000    Y=              0.0000    Z=              0.0000  Tot=              0.0000
 Quadrupole moment (field-independent basis, Debye-Ang):
   XX=             -0.3456   YY=             -0.3456   ZZ=             -0.3456
   XY=              0.0000   XZ=              0.0000   YZ=              0.0000

 Normal termination of Gaussian 16 at Mon Jun 19 20:32:55 2023.
