 Gaussian 16, Revision C.01,
 Gaussian 16:  ES64L-G16RevC.01  3-Jul-2019

 ------------------
 # CCSD/aug-cc-pVQZ
 ------------------

 --
 He
 --
 Symbolic Z-matrix:
 Charge =  0 Multiplicity = 1

                         Standard orientation:
 ---------------------------------------------------------------------
 Center     Atomic      Atomic             Coordinates (Angstroms)
 Number     Number       Type             X           Y           Z
 ---------------------------------------------------------------------
      1          1           0        0.000000    0.000000    0.395000
      2          1           0        0.000000    0.000000   -0.395000
 ---------------------------------------------------------------------

 SCF Done:  E(RHF) =  -1.13149078509     A.U. after    6 cycles
 E2 =    -0.3345703076D-01 EUMP2 =    -0.11649478158500D+01

 The electronic state is 1-SGG.
 Alpha  occ. eigenvalues --   -0.57992
 Alpha virt. eigenvalues --    0.04685   0.04765   0.15639   0.17266   0.17266
 Alpha virt. eigenvalues --    0.22891   0.23300   0.23300   0.32887   0.35413
 Alpha virt. eigenvalues --    0.59932   0.59932   0.61155   0.65957   0.65957

 Mulliken charges:
               1
     1  H    0.000000
     2  H    0.000000
 Sum of Mulliken charges =   0.00000

 Dipole moment (field-independent basis, Debye):
    X=              0.0000    Y=             -0.0000    Z=              0.0000  Tot=              0.0000
 Quadrupole moment (field-independent basis, Debye-Ang):
   XX=             -2.1710   YY=             -2.1710   ZZ=             -1.4264
   XY=             -0.0000   XZ=             -0.0000   YZ=              0.0000

 Normal termination of Gaussian 16 at Thu Jun 22 15:38:16 2023.
