 Gaussian 16, Revision C.01,
 Gaussian 16:  ES64L-G16RevC.01  3-Jul-2019

 ------------------
 # CCSD/aug-cc-pVDZ
 ------------------

 -------
 TitleMe
 -------
 Symbolic Z-matrix:
 Charge =  1 Multiplicity = 2

                         Standard orientation:
 ---------------------------------------------------------------------
 Center     Atomic      Atomic             Coordinates (Angstroms)
 Number     Number       Type             X           Y           Z
 ---------------------------------------------------------------------
      1          1           0        0.000000    0.000000    5.000000
      2          1           0        0.000000    0.000000   -5.000000
 ---------------------------------------------------------------------

 SCF Done:  E(UHF) = -0.499351053969     A.U. after    6 cycles
 E2 =     0.0000000000D+00 EUMP2 =    -0.49935105396911D+00

 The electronic state is 2-SGU.
 Alpha  occ. eigenvalues --   -0.55227
 Alpha virt. eigenvalues --   -0.49930  -0.05061  -0.04794   0.09048   0.09079
 Alpha virt. eigenvalues --    0.09094   0.09094   0.09108   0.09108   0.48269
 Alpha virt. eigenvalues --    0.48600   1.45223   1.45225   1.45237   1.45237

 Mulliken charges and spin densities:
               1          2
     1  H    0.500000   0.500000
     2  H    0.500000   0.500000
 Sum of Mulliken charges =   1.00000   1.00000

 Dipole moment (field-independent basis, Debye):
    X=              0.0000    Y=              0.0000    Z=              0.0000  Tot=              0.0000
 Quadrupole moment (field-independent basis, Debye-Ang):
   XX=             -1.3560   YY=             -1.3560   ZZ=            119.0296
   XY=             -0.0000   XZ=             -0.0000   YZ=              0.0000

 Normal termination of Gaussian 16 at Mon Jun 19 18:36:37 2023.
