 Gaussian 16, Revision C.01,
 Gaussian 16:  ES64L-G16RevC.01  3-Jul-2019

 ------------------
 # CCSD/aug-cc-pVDZ
 ------------------

 -------
 TitleMe
 -------
 Symbolic Z-matrix:
 Charge =  0 Multiplicity = 1

                         Standard orientation:
 ---------------------------------------------------------------------
 Center     Atomic      Atomic             Coordinates (Angstroms)
 Number     Number       Type             X           Y           Z
 ---------------------------------------------------------------------
      1          2           0        0.000000    0.000000    0.000000
 ---------------------------------------------------------------------

 SCF Done:  E(RHF) =  -2.85570466771     A.U. after    5 cycles
 E2 =    -0.2696251156D-01 EUMP2 =    -0.28826671792709D+01

 The electronic state is 1-A1G.
 Alpha  occ. eigenvalues --   -0.91712
 Alpha virt. eigenvalues --    0.17437   0.53038   0.53038   0.53038   1.71345
 Alpha virt. eigenvalues --    3.02488   3.02488   3.02488

 Mulliken charges:
               1
     1  He   0.000000
 Sum of Mulliken charges =   0.00000

 Dipole moment (field-independent basis, Debye):
    X=              0.0000    Y=              0.0000    Z=              0.0000  Tot=              0.0000
 Quadrupole moment (field-independent basis, Debye-Ang):
   XX=             -1.0734   YY=             -1.0734   ZZ=             -1.0734
   XY=              0.0000   XZ=              0.0000   YZ=              0.0000

 Normal termination of Gaussian 16 at Mon Jun 19 20:28:54 2023.
