 Gaussian 16, Revision C.01,
 Gaussian 16:  ES64L-G16RevC.01  3-Jul-2019

 ------------------
 # CCSD/aug-cc-pVDZ
 ------------------

 -------
 TitleMe
 -------
 Symbolic Z-matrix:
 Charge =  0 Multiplicity = 1

                         Standard orientation:
 ---------------------------------------------------------------------
 Center     Atomic      Atomic             Coordinates (Angstroms)
 Number     Number       Type             X           Y           Z
 ---------------------------------------------------------------------
      1          3           0        0.000000    0.000000    0.412500
      2          1           0        0.000000    0.000000   -1.237500
 ---------------------------------------------------------------------

 SCF Done:  E(RHF) =  -7.98413561180     A.U. after    9 cycles
 E2 =    -0.2432072247D-01 EUMP2 =    -0.80084563342703D+01

 The electronic state is 1-SG.
 Alpha  occ. eigenvalues --   -2.45799  -0.29827
 Alpha virt. eigenvalues --   -0.00833   0.01201   0.01201   0.01870   0.03111
 Alpha virt. eigenvalues --    0.05045   0.05045   0.08089   0.14353   0.17861
 Alpha virt. eigenvalues --    0.18525   0.18525   0.19518   0.19518   0.19944

 Mulliken charges:
               1
     1  Li   0.170872
     2  H   -0.170872
 Sum of Mulliken charges =  -0.00000

 Dipole moment (field-independent basis, Debye):
    X=              0.0000    Y=              0.0000    Z=              6.1504  Tot=              6.1504
 Quadrupole moment (field-independent basis, Debye-Ang):
   XX=             -5.4998   YY=             -5.4998   ZZ=             -7.3847
   XY=              0.0000   XZ=              0.0000   YZ=              0.0000

 1\1\GINC-BHG0001\SP\RCCSD-FC\Aug-CC-pVDZ\H1Li1\BWEIGHT\19-Jun-2023\0\\
 # CCSD/aug-cc-pVDZ\\TitleMe\\0,1\Li,0,0.,0.,0.\H,0,0.,0.,1.65\\Version
 =ES64L-G16RevC.01\State=1-SG\HF=-7.9841356\MP2=-8.0084563\MP3=-8.01502
 21\MP4D=-8.0172335\MP4DQ=-8.0168806\MP4SDQ=-8.0169422\CCSD=-8.0177667\
 RMSD=8.074e-09\PG=C*V [C*(H1Li1)]\\@
 The archive entry for this job was punched.

 Normal termination of Gaussian 16 at Mon Jun 19 20:37:23 2023.
