 Gaussian 16, Revision C.01,
 Gaussian 16:  ES64L-G16RevC.01  3-Jul-2019

 --------------------
 # wB97XD/aug-cc-pVQZ
 --------------------

 --
 He
 --
 Symbolic Z-matrix:
 Charge =  0 Multiplicity = 1

                         Standard orientation:
 ---------------------------------------------------------------------
 Center     Atomic      Atomic             Coordinates (Angstroms)
 Number     Number       Type             X           Y           Z
 ---------------------------------------------------------------------
      1          1           0        0.000000    0.000000    0.395000
      2          1           0        0.000000    0.000000   -0.395000
 ---------------------------------------------------------------------

 SCF Done:  E(RwB97XD) =  -1.17575793684     A.U. after    6 cycles

 The electronic state is 1-SGG.
 Alpha  occ. eigenvalues --   -0.50705
 Alpha virt. eigenvalues --    0.04856   0.05176   0.13813   0.16544   0.16544
 Alpha virt. eigenvalues --    0.23191   0.23735   0.23735   0.31636   0.32244
 Alpha virt. eigenvalues --    0.57540   0.57540   0.59367   0.62934   0.62934

 Mulliken charges:
               1
     1  H    0.000000
     2  H    0.000000
 Sum of Mulliken charges =   0.00000

 Dipole moment (field-independent basis, Debye):
    X=              0.0000    Y=              0.0000    Z=             -0.0000  Tot=              0.0000
 Quadrupole moment (field-independent basis, Debye-Ang):
   XX=             -2.1516   YY=             -2.1516   ZZ=             -1.4696
   XY=             -0.0000   XZ=             -0.0000   YZ=              0.0000

 Normal termination of Gaussian 16 at Thu Jun 22 16:58:07 2023.
