 Gaussian 16, Revision C.01,
 Gaussian 16:  ES64L-G16RevC.01  3-Jul-2019

 ------------------
 # CCSD/aug-cc-pVDZ
 ------------------

 -------
 TitleMe
 -------
 Symbolic Z-matrix:
 Charge =  1 Multiplicity = 2

                         Standard orientation:
 ---------------------------------------------------------------------
 Center     Atomic      Atomic             Coordinates (Angstroms)
 Number     Number       Type             X           Y           Z
 ---------------------------------------------------------------------
      1          1           0        0.000000    0.000000    1.000000
      2          1           0        0.000000    0.000000   -1.000000
 ---------------------------------------------------------------------

 SCF Done:  E(UHF) = -0.550175176405     A.U. after    6 cycles
 E2 =     0.0000000000D+00 EUMP2 =    -0.55017517640525D+00

 The electronic state is 2-SGG.
 Alpha  occ. eigenvalues --   -0.81476
 Alpha virt. eigenvalues --   -0.43079  -0.10264  -0.07375  -0.04302  -0.04302
 Alpha virt. eigenvalues --    0.04196   0.09988   0.09988   0.22317   0.42839
 Alpha virt. eigenvalues --    0.53583   1.36512   1.36512   1.38138   1.38138

 Mulliken charges and spin densities:
               1          2
     1  H    0.500000   0.500000
     2  H    0.500000   0.500000
 Sum of Mulliken charges =   1.00000   1.00000

 Dipole moment (field-independent basis, Debye):
    X=              0.0000    Y=              0.0000    Z=              0.0000  Tot=              0.0000
 Quadrupole moment (field-independent basis, Debye-Ang):
   XX=             -1.3347   YY=             -1.3347   ZZ=              5.2086
   XY=             -0.0000   XZ=             -0.0000   YZ=              0.0000

 Normal termination of Gaussian 16 at Mon Jun 19 18:37:36 2023.
