 Gaussian 16, Revision C.01,
 Gaussian 16:  ES64L-G16RevC.01  3-Jul-2019

 --------------
 # CCSD/cc-pVDZ
 --------------

 ---
 He+
 ---
 Symbolic Z-matrix:
 Charge =  1 Multiplicity = 2

                         Standard orientation:
 ---------------------------------------------------------------------
 Center     Atomic      Atomic             Coordinates (Angstroms)
 Number     Number       Type             X           Y           Z
 ---------------------------------------------------------------------
      1          2           0        0.000000    0.000000    0.000000
 ---------------------------------------------------------------------

 SCF Done:  E(UHF) =  -1.99362333773     A.U. after    6 cycles
 E2 =     0.0000000000D+00 EUMP2 =    -0.19936233377269D+01

 The electronic state is 2-A1G.
 Alpha  occ. eigenvalues --   -1.99362
 Alpha virt. eigenvalues --    0.59246   1.62862   1.62862   1.62862
  Beta virt. eigenvalues --   -0.81942   0.85056   1.81583   1.81583   1.81583

 Mulliken charges and spin densities:
               1          2
     1  He   1.000000   1.000000
 Sum of Mulliken charges =   1.00000   1.00000

 Dipole moment (field-independent basis, Debye):
    X=              0.0000    Y=              0.0000    Z=              0.0000  Tot=              0.0000
 Quadrupole moment (field-independent basis, Debye-Ang):
   XX=             -0.3513   YY=             -0.3513   ZZ=             -0.3513
   XY=              0.0000   XZ=              0.0000   YZ=              0.0000

 1\1\GINC-BHP0001\SP\UCCSD-FC\CC-pVDZ\He1(1+,2)\BWEIGHT\22-Jun-2023\0\\
 # CCSD/cc-pVDZ\\He+\\1,2\He,0,0.,0.,0.\\Version=ES64L-G16RevC.01\State
 =2-A1G\HF=-1.9936233\MP2=-1.9936233\MP3=-1.9936233\MP4D=-1.9936233\MP4
 DQ=-1.9936233\MP4SDQ=-1.9936233\CCSD=-1.9936233\S2=0.75\S2-1=0.\S2A=0.
 75\RMSD=3.472e-17\PG=OH [O(He1)]\\@
 The archive entry for this job was punched.

 Normal termination of Gaussian 16 at Thu Jun 22 14:56:48 2023.
