 Gaussian 16, Revision C.01,
 Gaussian 16:  ES64L-G16RevC.01  3-Jul-2019

 --------------
 # CCSD/cc-pVDZ
 --------------

 --
 He
 --
 Symbolic Z-matrix:
 Charge =  0 Multiplicity = 1

                         Standard orientation:
 ---------------------------------------------------------------------
 Center     Atomic      Atomic             Coordinates (Angstroms)
 Number     Number       Type             X           Y           Z
 ---------------------------------------------------------------------
      1          2           0        0.000000    0.000000    0.000000
 ---------------------------------------------------------------------

 SCF Done:  E(RHF) =  -2.85516047724     A.U. after    4 cycles
 E2 =    -0.2582833955D-01 EUMP2 =    -0.28809888167941D+01

 The electronic state is 1-A1G.
 Alpha  occ. eigenvalues --   -0.91415
 Alpha virt. eigenvalues --    1.39744   2.52437   2.52437   2.52437

 Mulliken charges:
               1
     1  He  -0.000000
 Sum of Mulliken charges =  -0.00000

 Dipole moment (field-independent basis, Debye):
    X=              0.0000    Y=              0.0000    Z=              0.0000  Tot=              0.0000
 Quadrupole moment (field-independent basis, Debye-Ang):
   XX=             -1.0426   YY=             -1.0426   ZZ=             -1.0426
   XY=              0.0000   XZ=              0.0000   YZ=              0.0000

 Normal termination of Gaussian 16 at Thu Jun 22 15:18:56 2023.
